 Gaussian 16, Revision B.01,
 Gaussian 16:  ES64L-G16RevB.01 20-Dec-2017

 ----------------------------------------------------------------------
 #p B3LYP/6-311++G(d,p) Opt freq temp=0 punch=derivatives SCF=Tight Pop
 =MK IOp(6/50=1) iop(6/42=8) iop(6/41=7)
 ----------------------------------------------------------------------

 ---------
 boricacid
 ---------
 Symbolic Z-matrix:
 Charge =  0 Multiplicity = 1

 SCF Done:  E(RB3LYP) =  -252.517844006     A.U. after   10 cycles
 SCF Done:  E(RB3LYP) =  -252.533795511     A.U. after   10 cycles
 SCF Done:  E(RB3LYP) =  -252.537887545     A.U. after   10 cycles
 SCF Done:  E(RB3LYP) =  -252.539116313     A.U. after   10 cycles
 SCF Done:  E(RB3LYP) =  -252.543947525     A.U. after   10 cycles
 SCF Done:  E(RB3LYP) =  -252.554242870     A.U. after   11 cycles
 SCF Done:  E(RB3LYP) =  -252.559681422     A.U. after   11 cycles
 SCF Done:  E(RB3LYP) =  -252.563152077     A.U. after   11 cycles
 SCF Done:  E(RB3LYP) =  -252.564843470     A.U. after   10 cycles
 SCF Done:  E(RB3LYP) =  -252.564919008     A.U. after    9 cycles
 SCF Done:  E(RB3LYP) =  -252.564940972     A.U. after    8 cycles
 SCF Done:  E(RB3LYP) =  -252.567359379     A.U. after   11 cycles
 SCF Done:  E(RB3LYP) =  -252.575550428     A.U. after   11 cycles
 SCF Done:  E(RB3LYP) =  -252.577148737     A.U. after   11 cycles
 SCF Done:  E(RB3LYP) =  -252.577558198     A.U. after   10 cycles
 SCF Done:  E(RB3LYP) =  -252.577601716     A.U. after    9 cycles
 SCF Done:  E(RB3LYP) =  -252.577624556     A.U. after    9 cycles
 SCF Done:  E(RB3LYP) =  -252.577626712     A.U. after    8 cycles
 SCF Done:  E(RB3LYP) =  -252.577627002     A.U. after    7 cycles
 Optimization completed.
    -- Stationary point found.

 1\1\GINC-NODE27\FOpt\RB3LYP\6-311++G(d,p)\B1H3O3\SJIAO\12-Mar-2019\0\\
 #p B3LYP/6-311++G(d,p) Opt freq temp=0 punch=derivatives SCF=Tight Pop
 =MK IOp(6/50=1) iop(6/42=8) iop(6/41=7)\\boricacid\\0,1\B,-0.878434303
 9,0.9367283471,0.0188992105\O,-0.3016701232,2.1770035058,0.1059935955\
 O,-2.2396727557,0.8904866402,0.0731921771\O,-0.190479288,-0.2533314166
 ,-0.1179189693\H,0.6560991576,2.1960360408,0.0664178853\H,-2.574630558
 4,-0.007924729,0.0067420769\H,0.7664778716,-0.1927883883,-0.153325976\
 \Version=ES64L-G16RevB.01\State=1-A\HF=-252.577627\RMSD=3.033e-09\RMSF

 Normal termination of Gaussian 16 at Tue Mar 12 17:04:19 2019.

 ----------------------------------------------------------------------
 #P Geom=AllCheck Guess=TCheck SCRF=Check Test GenChk RB3LYP/6-311++G(d
 ,p) Freq
 ----------------------------------------------------------------------

 Structure from the checkpoint file:  "boricacid.chk"
 ---------
 boricacid
 ---------
 Charge =  0 Multiplicity = 1

                         Standard orientation:
 ---------------------------------------------------------------------
 Center     Atomic      Atomic             Coordinates (Angstroms)
 Number     Number       Type             X           Y           Z
 ---------------------------------------------------------------------
      1          5           0        0.007795   -0.032275   -0.000025
      2          8           0       -1.092365   -0.849694    0.000029
      3          8           0        1.225059   -0.645728   -0.000012
      4          8           0       -0.026472    1.348691   -0.000026
      5          1           0       -1.942368   -0.406135   -0.000138
      6          1           0        1.949253   -0.013827    0.000142
      7          1           0       -0.895637    1.755186    0.000198
 ---------------------------------------------------------------------

 SCF Done:  E(RB3LYP) =  -252.577627002     A.U. after    1 cycles

 The electronic state is 1-A.
 Alpha  occ. eigenvalues --  -19.14819 -19.14239 -19.13160  -6.81794  -1.06473
 Alpha  occ. eigenvalues --   -1.02338  -1.01775  -0.60268  -0.57575  -0.50772
 Alpha  occ. eigenvalues --   -0.43992  -0.42103  -0.37826  -0.35923  -0.34112
 Alpha  occ. eigenvalues --   -0.33017
 Alpha virt. eigenvalues --   -0.03645   0.00802   0.01854   0.03909   0.05533
 Alpha virt. eigenvalues --    0.06672   0.08461   0.09033   0.12054   0.14427
 Alpha virt. eigenvalues --    0.15141   0.17188   0.18257   0.18393   0.20165

 Mulliken charges:
               1
     1  B    0.379469
     2  O   -0.376190
     3  O   -0.383856
     4  O   -0.402664
     5  H    0.249673
     6  H    0.285917
     7  H    0.247651
 Sum of Mulliken charges =   0.00000

 Dipole moment (field-independent basis, Debye):
    X=             -1.8223    Y=              2.5850    Z=              0.0003  Tot=              3.1627
 Quadrupole moment (field-independent basis, Debye-Ang):
   XX=            -15.2859   YY=            -27.0177   ZZ=            -23.6806
   XY=             -2.0542   XZ=              0.0009   YZ=              0.0010

  Exact polarizability:  30.293  -0.588  27.619   0.000   0.000  19.561
 Approx polarizability:  37.476  -0.881  34.240  -0.000   0.000  24.227

 ESP charges:
               1
     1  B    0.860003
     2  O   -0.660767
     3  O   -0.678890
     4  O   -0.771015
     5  H    0.384965
     6  H    0.434227
     7  H    0.431477
 Sum of ESP charges =   0.00000

                      1                      2                      3
                      A                      A                      A
 Frequencies --    291.8053               441.2440               454.2753
 Red. masses --      1.0842                 3.9046                 3.9988
 Frc consts  --      0.0544                 0.4479                 0.4862
 IR Inten    --     10.1313                25.8563                 9.2020

                      4                      5                      6
                      A                      A                      A
 Frequencies --    462.8713               524.2977               665.8522
 Red. masses --      1.1717                 1.0780                10.0818
 Frc consts  --      0.1479                 0.1746                 2.6336
 IR Inten    --    219.2534               134.5290                78.0184

                      7                      8                      9
                      A                      A                      A
 Frequencies --    873.2226               943.3055              1020.4137
 Red. masses --      8.3473                 1.1085                 1.4607
 Frc consts  --      3.7501                 0.5811                 0.8961
 IR Inten    --      3.2829               178.0130               215.6977

                     10                     11                     12
                      A                      A                      A
 Frequencies --   1031.9270              1392.1906              1454.3464
 Red. masses --      1.3142                 6.7756                 5.5638
 Frc consts  --      0.8245                 7.7374                 6.9336
 IR Inten    --      6.0350               524.6391               369.4205

                     13                     14                     15
                      A                      A                      A
 Frequencies --   3882.4226              3892.3880              3909.3031
 Red. masses --      1.0657                 1.0667                 1.0664
 Frc consts  --      9.4646                 9.5218                 9.6021
 IR Inten    --     82.4890                33.2238                81.1577

 - Thermochemistry -
 -------------------
 Temperature   298.150 Kelvin.  Pressure   1.00000 Atm.
 Atom     1 has atomic number  5 and mass  11.00931

 Molecular mass:    62.01752 amu.
 Principal axes and moments of inertia in atomic units:
                           1         2         3
     Eigenvalues --   178.88769 185.69865 364.58634
           X            0.86781  -0.49690   0.00001
           Y            0.49690   0.86781   0.00001
           Z           -0.00001  -0.00000   1.00000
 This molecule is an asymmetric top.
 Rotational symmetry number  1.
 Rotational temperatures (Kelvin)      0.48418     0.46642     0.23757
 Rotational constants (GHZ):          10.08868     9.71866     4.95011
 Zero-point vibrational energy     127042.6 (Joules/Mol)
                                   30.36391 (Kcal/Mol)
 Warning -- explicit consideration of   5 degrees of freedom as
           vibrations may cause significant error
 Vibrational temperatures:    419.84   634.85   653.60   665.97   754.35
          (Kelvin)            958.01  1256.37  1357.21  1468.15  1484.71
                             2003.05  2092.48  5585.94  5600.28  5624.62

 Zero-point correction=                           0.048388 (Hartree/Particle)
 Thermal correction to Energy=                    0.052955
 Thermal correction to Enthalpy=                  0.053899
 Thermal correction to Gibbs Free Energy=         0.021803
 Sum of electronic and zero-point Energies=           -252.529239
 Sum of electronic and thermal Energies=              -252.524672
 Sum of electronic and thermal Enthalpies=            -252.523728
 Sum of electronic and thermal Free Energies=         -252.555824

                     E (Thermal)             CV                S
                      KCal/Mol        Cal/Mol-Kelvin    Cal/Mol-Kelvin
 Total                   33.230             15.683             67.552
 Electronic               0.000              0.000              0.000
 Translational            0.889              2.981             38.294
 Rotational               0.889              2.981             24.008
 Vibrational             31.452              9.722              5.250
 Vibration     1          0.687              1.689              1.463
 Vibration     2          0.801              1.380              0.823
 Vibration     3          0.813              1.351              0.783
 Vibration     4          0.821              1.332              0.758
 Vibration     5          0.879              1.196              0.600

 Optimization completed.
    -- Stationary point found.

 1\1\GINC-NODE27\Freq\RB3LYP\6-311++G(d,p)\B1H3O3\SJIAO\12-Mar-2019\0\\
 #P Geom=AllCheck Guess=TCheck SCRF=Check Test GenChk RB3LYP/6-311++G(d
 ,p) Freq\\boricacid\\0,1\B,-0.8784343039,0.9367283471,0.0188992105\O,-
 0.3016701232,2.1770035058,0.1059935955\O,-2.2396727557,0.8904866402,0.
 0731921771\O,-0.190479288,-0.2533314166,-0.1179189693\H,0.6560991576,2
 .1960360408,0.0664178853\H,-2.5746305584,-0.007924729,0.0067420769\H,0
 .7664778716,-0.1927883883,-0.153325976\\Version=ES64L-G16RevB.01\State
 =1-A\HF=-252.577627\RMSD=2.894e-09\RMSF=1.679e-05\ZeroPoint=0.048388\T

 Normal termination of Gaussian 16 at Tue Mar 12 17:05:17 2019.
